title       = Steered MD (Cα atoms of Asn1493 and Gln1238)
; Run parameters
integrator  = md
dt          = 0.002
tinit       = 0
nsteps      = 25000000  
nstcomm     = 10
; Output parameters
nstxout     = 5000      
nstvout     = 5000 
nstfout     = 500
nstxtcout   = 500      
nstenergy   = 500
; Bond parameters
constraint_algorithm    = lincs
constraints             = all-bonds
continuation            = yes       ; continuing from NPT 
; Single-range cutoff scheme
cutoff-scheme   = Verlet
nstlist         = 20 
ns_type         = grid 
rlist           = 1.4
rcoulomb        = 1.4
rvdw            = 1.4
; PME electrostatics parameters
coulombtype     = PME
fourierspacing  = 0.12
fourier_nx      = 0
fourier_ny      = 0
fourier_nz      = 0
pme_order       = 4
ewald_rtol      = 1e-5
optimize_fft    = yes
; Berendsen temperature coupling is on in two groups
Tcoupl      = Nose-Hoover
tc_grps     = Protein   Non-Protein 
tau_t       = 1.0       1.0
ref_t       = 310       310
; Pressure coupling is on
Pcoupl          = Parrinello-Rahman 
pcoupltype      = isotropic
tau_p           = 2.0       
compressibility = 4.5e-5
ref_p           = 1.0
refcoord_scaling = com
; Generate velocities is off
gen_vel     = no 
; Periodic boundary conditions are on in all directions
pbc     = xyz
; Long-range dispersion correction
DispCorr    = EnerPres
; Pull code
pull                    = yes
pull_ncoords            = 1         ; only one reaction coordinate 
pull_ngroups            = 2         ; two groups defining one reaction coordinate 
pull_group1_name        = pull2 
pull_group2_name        = pull1 
pull_coord1_type        = umbrella  ; harmonic potential
pull_coord1_geometry    = distance  ; simple distance increase 
pull_coord1_dim         = N Y N
pull_coord1_groups      = 1 2
pull_coord1_start       = yes       ; define initial COM distance > 0
pull_coord1_rate        = 0.01      ; 0.01 nm per ps = 10 nm per ns
pull_coord1_k           = 1000      ; kJ mol^-1 nm^-2